  MPI-parallelism will be employed.
------------------------------------------------------------
          Invoking FHI-aims ...
          Version 071914_7
          Compiled on 2017/08/29 at 10:21:37 on host draco02.

          When using FHI-aims, please cite the following reference:

          Volker Blum, Ralf Gehrke, Felix Hanke, Paula Havu,
          Ville Havu, Xinguo Ren, Karsten Reuter, and Matthias Scheffler,
          'Ab Initio Molecular Simulations with Numeric Atom-Centered Orbitals: FHI-aims',
          Computer Physics Communications 180, 2175-2196 (2009)

          For any questions about FHI-aims, please visit the aimsclub website
          with its forums and wiki. Contributions to both the forums and the
          wiki are warmly encouraged - they are for you, and everyone is welcome there.

------------------------------------------------------------

  Date     :  20190118, Time     :  165047.232
  Time zero on CPU 1             :   0.878240000000000E-01  s.
  Internal wall clock time zero  :           317062247.232  s.

  Using       32 parallel tasks.
  Task        0 on host dra0095 reporting.
  Task        1 on host dra0095 reporting.
  Task        2 on host dra0095 reporting.
  Task        3 on host dra0095 reporting.
  Task        4 on host dra0095 reporting.
  Task        5 on host dra0095 reporting.
  Task        6 on host dra0095 reporting.
  Task        7 on host dra0095 reporting.
  Task        8 on host dra0095 reporting.
  Task        9 on host dra0095 reporting.
  Task       10 on host dra0095 reporting.
  Task       11 on host dra0095 reporting.
  Task       12 on host dra0095 reporting.
  Task       13 on host dra0095 reporting.
  Task       14 on host dra0095 reporting.
  Task       15 on host dra0095 reporting.
  Task       16 on host dra0095 reporting.
  Task       17 on host dra0095 reporting.
  Task       18 on host dra0095 reporting.
  Task       19 on host dra0095 reporting.
  Task       20 on host dra0095 reporting.
  Task       21 on host dra0095 reporting.
  Task       22 on host dra0095 reporting.
  Task       23 on host dra0095 reporting.
  Task       24 on host dra0095 reporting.
  Task       25 on host dra0095 reporting.
  Task       26 on host dra0095 reporting.
  Task       27 on host dra0095 reporting.
  Task       28 on host dra0095 reporting.
  Task       29 on host dra0095 reporting.
  Task       30 on host dra0095 reporting.
  Task       31 on host dra0095 reporting.

  Performing system and environment tests:
  *** Environment variable OMP_NUM_THREADS is not set
  *** For performance reasons you might want to set it to 1
  | Stacksize not measured: no C compiler
  | Checking for scalapack...
  | Testing pdtran()...
  | All pdtran() tests passed.

  Obtaining array dimensions for all initial allocations:
  
  -----------------------------------------------------------------------
  Parsing control.in (first pass over file, find array dimensions only).
  The contents of control.in will be repeated verbatim below
  unless switched off by setting 'verbatim_writeout .false.' .
  in the first line of control.in .
  -----------------------------------------------------------------------
  
  # control input
  xc   pbe
  
  # Physical setting
  spin none
  relativistic atomic_zora scalar
  
  sc_accuracy_eev 1E-3
  sc_accuracy_etot 1E-6
  sc_accuracy_rho 1E-4
  sc_iter_limit 200
  occupation_type gaussian 0.01
  mixer pulay
  n_max_pulay 10
  charge_mix_param        0.1
  # k-grid settings (to be adjusted)
  k_grid 2 3 1
  
  output band  0.0 0.0 0.0  0.5 0.0 0.0  10 X+dy_0.0 gamma+dy_0.0
  output band  0.0 0.01 0.0  0.5 0.01 0.0  10 X+dy_0.0 gamma+dy_0.0
  output band  0.0 0.02 0.0  0.5 0.02 0.0  10 X+dy_0.0 gamma+dy_0.0
  output band  0.0 0.03 0.0  0.5 0.03 0.0  10 X+dy_0.0 gamma+dy_0.0
  output band  0.0 0.04 0.0  0.5 0.04 0.0  10 X+dy_0.0 gamma+dy_0.0
  output band  0.0 0.05 0.0  0.5 0.05 0.0  10 X+dy_0.0 gamma+dy_0.0
  output band  0.0 0.06 0.0  0.5 0.06 0.0  10 X+dy_0.0 gamma+dy_0.0
  output band  0.0 0.07 0.0  0.5 0.07 0.0  10 X+dy_0.0 gamma+dy_0.0
  output band  0.0 0.08 0.0  0.5 0.08 0.0  10 X+dy_0.0 gamma+dy_0.0
  output band  0.0 0.09 0.0  0.5 0.09 0.0  10 X+dy_0.0 gamma+dy_0.0
  output band  0.0 0.1 0.0  0.5 0.1 0.0  10 X+dy_0.0 gamma+dy_0.0
  output band  0.0 0.11 0.0  0.5 0.11 0.0  10 X+dy_0.0 gamma+dy_0.0
  output band  0.0 0.12 0.0  0.5 0.12 0.0  10 X+dy_0.0 gamma+dy_0.0
  output band  0.0 0.13 0.0  0.5 0.13 0.0  10 X+dy_0.0 gamma+dy_0.0
  output band  0.0 0.14 0.0  0.5 0.14 0.0  10 X+dy_0.0 gamma+dy_0.0
  output band  0.0 0.15 0.0  0.5 0.15 0.0  10 X+dy_0.0 gamma+dy_0.0
  output band  0.0 0.16 0.0  0.5 0.16 0.0  10 X+dy_0.0 gamma+dy_0.0
  output band  0.0 0.17 0.0  0.5 0.17 0.0  10 X+dy_0.0 gamma+dy_0.0
  output band  0.0 0.18 0.0  0.5 0.18 0.0  10 X+dy_0.0 gamma+dy_0.0
  output band  0.0 0.19 0.0  0.5 0.19 0.0  10 X+dy_0.0 gamma+dy_0.0
  output band  0.0 0.2 0.0  0.5 0.2 0.0  10 X+dy_0.0 gamma+dy_0.0
  output band  0.0 0.21 0.0  0.5 0.21 0.0  10 X+dy_0.0 gamma+dy_0.0
  output band  0.0 0.22 0.0  0.5 0.22 0.0  10 X+dy_0.0 gamma+dy_0.0
  output band  0.0 0.23 0.0  0.5 0.23 0.0  10 X+dy_0.0 gamma+dy_0.0
  output band  0.0 0.24 0.0  0.5 0.24 0.0  10 X+dy_0.0 gamma+dy_0.0
  output band  0.0 0.25 0.0  0.5 0.25 0.0  10 X+dy_0.0 gamma+dy_0.0
  output band  0.0 0.26 0.0  0.5 0.26 0.0  10 X+dy_0.0 gamma+dy_0.0
  output band  0.0 0.27 0.0  0.5 0.27 0.0  10 X+dy_0.0 gamma+dy_0.0
  output band  0.0 0.28 0.0  0.5 0.28 0.0  10 X+dy_0.0 gamma+dy_0.0
  output band  0.0 0.29 0.0  0.5 0.29 0.0  10 X+dy_0.0 gamma+dy_0.0
  output band  0.0 0.3 0.0  0.5 0.3 0.0  10 X+dy_0.0 gamma+dy_0.0
  output band  0.0 0.31 0.0  0.5 0.31 0.0  10 X+dy_0.0 gamma+dy_0.0
  output band  0.0 0.32 0.0  0.5 0.32 0.0  10 X+dy_0.0 gamma+dy_0.0
  output band  0.0 0.33 0.0  0.5 0.33 0.0  10 X+dy_0.0 gamma+dy_0.0
  output band  0.0 0.34 0.0  0.5 0.34 0.0  10 X+dy_0.0 gamma+dy_0.0
  output band  0.0 0.35 0.0  0.5 0.35 0.0  10 X+dy_0.0 gamma+dy_0.0
  output band  0.0 0.36 0.0  0.5 0.36 0.0  10 X+dy_0.0 gamma+dy_0.0
  output band  0.0 0.37 0.0  0.5 0.37 0.0  10 X+dy_0.0 gamma+dy_0.0
  output band  0.0 0.38 0.0  0.5 0.38 0.0  10 X+dy_0.0 gamma+dy_0.0
  output band  0.0 0.39 0.0  0.5 0.39 0.0  10 X+dy_0.0 gamma+dy_0.0
  output band  0.0 0.4 0.0  0.5 0.4 0.0  10 X+dy_0.0 gamma+dy_0.0
  output band  0.0 0.41 0.0  0.5 0.41 0.0  10 X+dy_0.0 gamma+dy_0.0
  output band  0.0 0.42 0.0  0.5 0.42 0.0  10 X+dy_0.0 gamma+dy_0.0
  output band  0.0 0.43 0.0  0.5 0.43 0.0  10 X+dy_0.0 gamma+dy_0.0
  output band  0.0 0.44 0.0  0.5 0.44 0.0  10 X+dy_0.0 gamma+dy_0.0
  output band  0.0 0.45 0.0  0.5 0.45 0.0  10 X+dy_0.0 gamma+dy_0.0
  output band  0.0 0.46 0.0  0.5 0.46 0.0  10 X+dy_0.0 gamma+dy_0.0
  output band  0.0 0.47 0.0  0.5 0.47 0.0  10 X+dy_0.0 gamma+dy_0.0
  output band  0.0 0.48 0.0  0.5 0.48 0.0  10 X+dy_0.0 gamma+dy_0.0
  output band  0.0 0.49 0.0  0.5 0.49 0.0  10 X+dy_0.0 gamma+dy_0.0
  output band  0.0 0.5 0.0  0.5 0.5 0.0  10 X+dy_0.0 gamma+dy_0.0
  
  
  ################################################################################
  #
  #  FHI-aims code project
  #  VB, Fritz-Haber Institut, 2009
  #
  #  Suggested "light" defaults for C atom (to be pasted into control.in file)
  #  Be sure to double-check any results obtained with these settings for post-processing,
  #  e.g., with the "tight" defaults and larger basis sets.
  #
  ################################################################################
    species        C
  #     global species definitions
      nucleus             6
      mass                12.0107
  #
      l_hartree           4
  #
      cut_pot             3.5  1.5  1.0
      basis_dep_cutoff    1e-4
  #
      radial_base         34 5.0
      radial_multiplier   1
      angular_grids specified
        division   0.3326   50
        division   0.5710  110
        division   0.7727  194
        division   0.8772  302
  #      division   0.9334  434
  #      division   0.9625  590
  #      division   0.9924  770
  #      division   1.0230  974
  #      division   1.4589 1202
  #     outer_grid  974
       outer_grid 302
  ################################################################################
  #
  #  Definition of "minimal" basis
  #
  ################################################################################
  #     valence basis states
      valence      2  s   2.
      valence      2  p   2.
  #     ion occupancy
      ion_occ      2  s   1.
      ion_occ      2  p   1.
  ################################################################################
  #
  #  Suggested additional basis functions. For production calculations,
  #  uncomment them one after another (the most important basis functions are
  #  listed first).
  #
  #  Constructed for dimers: 1.0 A, 1.25 A, 1.5 A, 2.0 A, 3.0 A
  #
  ################################################################################
  #  "First tier" - improvements: -1214.57 meV to -155.61 meV
       hydro 2 p 1.7
       hydro 3 d 6
       hydro 2 s 4.9
  #  "Second tier" - improvements: -67.75 meV to -5.23 meV
  #     hydro 4 f 9.8
  #     hydro 3 p 5.2
  #     hydro 3 s 4.3
  #     hydro 5 g 14.4
  #     hydro 3 d 6.2
  #  "Third tier" - improvements: -2.43 meV to -0.60 meV
  #     hydro 2 p 5.6
  #     hydro 2 s 1.4
  #     hydro 3 d 4.9
  #     hydro 4 f 11.2
  #  "Fourth tier" - improvements: -0.39 meV to -0.18 meV
  #     hydro 2 p 2.1
  #     hydro 5 g 16.4
  #     hydro 4 d 13.2
  #     hydro 3 s 13.6
  #     hydro 4 f 17.6
  #  Further basis functions - improvements: -0.08 meV and below
  #     hydro 3 s 2
  #     hydro 3 p 6
  #     hydro 4 d 20
  ################################################################################
  #
  #  FHI-aims code project
  #  VB, Fritz-Haber Institut, 2009
  #
  #  Suggested "light" defaults for H atom (to be pasted into control.in file)
  #  Be sure to double-check any results obtained with these settings for post-processing,
  #  e.g., with the "tight" defaults and larger basis sets.
  #
  ################################################################################
    species        H
  #     global species definitions
      nucleus             1
      mass                1.00794
  #
      l_hartree           4
  #
      cut_pot             3.5  1.5  1.0
      basis_dep_cutoff    1e-4
  #
      radial_base         24 5.0
      radial_multiplier   1
      angular_grids       specified
        division   0.2421   50
        division   0.3822  110
        division   0.4799  194
        division   0.5341  302
  #      division   0.5626  434
  #      division   0.5922  590
  #      division   0.6542  770
  #      division   0.6868 1202
  #      outer_grid  770
        outer_grid  302
  ################################################################################
  #
  #  Definition of "minimal" basis
  #
  ################################################################################
  #     valence basis states
      valence      1  s   1.
  #     ion occupancy
      ion_occ      1  s   0.5
  ################################################################################
  #
  #  Suggested additional basis functions. For production calculations,
  #  uncomment them one after another (the most important basis functions are
  #  listed first).
  #
  #  Basis constructed for dimers: 0.5 A, 0.7 A, 1.0 A, 1.5 A, 2.5 A
  #
  ################################################################################
  #  "First tier" - improvements: -1014.90 meV to -62.69 meV
       hydro 2 s 2.1
       hydro 2 p 3.5
  #  "Second tier" - improvements: -12.89 meV to -1.83 meV
  #     hydro 1 s 0.85
  #     hydro 2 p 3.7
  #     hydro 2 s 1.2
  #     hydro 3 d 7
  #  "Third tier" - improvements: -0.25 meV to -0.12 meV
  #     hydro 4 f 11.2
  #     hydro 3 p 4.8
  #     hydro 4 d 9
  #     hydro 3 s 3.2
  
  -----------------------------------------------------------------------
  Completed first pass over input file control.in .
  -----------------------------------------------------------------------
  
  
  -----------------------------------------------------------------------
  Parsing geometry.in (first pass over file, find array dimensions only).
  The contents of geometry.in will be repeated verbatim below
  unless switched off by setting 'verbatim_writeout .false.' .
  in the first line of geometry.in .
  -----------------------------------------------------------------------
  
  #=======================================================
  # FHI-aims file: geometry.in
  # Created using the Atomic Simulation Environment (ASE)
  # Tue Jan  8 03:42:44 2019
  #=======================================================
  lattice_vector 14.4329996108999996 0.0000000000000000 0.0000000000000000
  lattice_vector 0.0000000000000000 7.1929998397999997 0.0000000000000000
  lattice_vector 0.0000000000000000 0.0000000000000000 26.8600006104000002
  atom 0.0000000000000000 0.0000000000000000 0.7265630165113200 C
  atom 0.0000000000000000 0.0000000000000000 26.1334371104086713 C
  atom 7.2164998054499998 3.5964999198999998 26.1334371104086713 C
  atom 7.2164998054499998 3.5964999198999998 0.7265630165113200 C
  atom 0.0000000000000000 3.5964999198999998 14.1565638051913307 C
  atom 0.0000000000000000 3.5964999198999998 12.7034375841486877 C
  atom 7.2164998054499998 0.0000000000000000 12.7034375841486877 C
  atom 7.2164998054499998 0.0000000000000000 14.1565638051913307 C
  atom 13.7262158508822214 6.1651202346225782 1.4219684323145760 C
  atom 0.7067839765127734 1.0278797130724191 25.4380318826254168 C
  atom 6.5097160454322207 4.6243795250774209 25.4380318826254168 C
  atom 7.9232835654677789 2.5686203147225783 1.4219684323145760 C
  atom 7.9232835654677789 2.5686203147225783 25.4380318826254168 C
  atom 6.5097160454322207 4.6243795250774209 1.4219684323145760 C
  atom 0.7067839765127734 1.0278797130724191 1.4219684323145760 C
  atom 13.7262158508822214 6.1651202346225782 25.4380318826254168 C
  atom 13.7262158508822214 2.5686203147225783 14.8519690329745835 C
  atom 0.7067839765127734 4.6243795250774209 12.0080315774254167 C
  atom 6.5097160454322207 1.0278797130724191 12.0080315774254167 C
  atom 7.9232835654677789 6.1651202346225782 14.8519690329745835 C
  atom 7.9232835654677789 6.1651202346225782 12.0080315774254167 C
  atom 6.5097160454322207 1.0278797130724191 14.8519690329745835 C
  atom 0.7067839765127734 4.6243795250774209 14.8519690329745835 C
  atom 13.7262158508822214 2.5686203147225783 12.0080315774254167 C
  atom 13.1692461938355940 5.0868894219695608 0.7139388162244320 C
  atom 1.2637534170644047 2.1061104178304388 26.1460624388155836 C
  atom 5.9527463883855942 5.7026103377304382 26.1460624388155836 C
  atom 8.4802532225144045 1.4903895020695614 0.7139388162244320 C
  atom 8.4802532225144045 1.4903895020695614 26.1460624388155836 C
  atom 5.9527463883855942 5.7026103377304382 0.7139388162244320 C
  atom 1.2637534170644047 2.1061104178304388 0.7139388162244320 C
  atom 13.1692461938355940 5.0868894219695608 26.1460624388155836 C
  atom 13.1692461938355940 1.4903895020695614 14.1439384767844167 C
  atom 1.2637534170644047 5.7026103377304382 12.7160613278155648 C
  atom 5.9527463883855942 2.1061104178304388 12.7160613278155648 C
  atom 8.4802532225144045 5.0868894219695608 14.1439384767844167 C
  atom 8.4802532225144045 5.0868894219695608 12.7160613278155648 C
  atom 5.9527463883855942 2.1061104178304388 14.1439384767844167 C
  atom 1.2637534170644047 5.7026103377304382 14.1439384767844167 C
  atom 13.1692461938355940 1.4903895020695614 12.7160613278155648 C
  atom 12.5066271672661760 4.0043429460796611 1.3824842314172880 C
  atom 1.9263724436338234 3.1886568937203386 25.4775168624627248 C
  atom 5.2901273618161762 6.7851568136203380 25.4775168624627248 C
  atom 9.1428722490838226 0.4078430261796614 1.3824842314172880 C
  atom 9.1428722490838226 0.4078430261796614 25.4775168624627248 C
  atom 5.2901273618161762 6.7851568136203380 1.3824842314172880 C
  atom 1.9263724436338234 3.1886568937203386 1.3824842314172880 C
  atom 12.5066271672661760 4.0043429460796611 25.4775168624627248 C
  atom 12.5066271672661760 0.4078430261796614 14.8124840531372755 C
  atom 1.9263724436338234 6.7851568136203380 12.0475157783227065 C
  atom 5.2901273618161762 3.1886568937203386 12.0475157783227065 C
  atom 9.1428722490838226 4.0043429460796611 14.8124840531372755 C
  atom 9.1428722490838226 4.0043429460796611 12.0475157783227065 C
  atom 5.2901273618161762 3.1886568937203386 14.8124840531372755 C
  atom 1.9263724436338234 6.7851568136203380 14.8124840531372755 C
  atom 12.5066271672661760 0.4078430261796614 12.0475157783227065 C
  atom 11.9142968199358421 2.9987614821596229 0.6954054158032560 C
  atom 2.5187027909641579 4.1942383576403763 26.1645953826167492 C
  atom 4.6977970144858414 0.5977384377403766 26.1645953826167492 C
  atom 9.7352025964141582 6.5952614020596227 0.6954054158032560 C
  atom 9.7352025964141582 6.5952614020596227 26.1645953826167492 C
  atom 4.6977970144858414 0.5977384377403766 0.6954054158032560 C
  atom 2.5187027909641579 4.1942383576403763 0.6954054158032560 C
  atom 11.9142968199358421 2.9987614821596229 26.1645953826167492 C
  atom 11.9142968199358421 6.5952614020596227 14.1254055329832511 C
  atom 2.5187027909641579 0.5977384377403766 12.7345950774167491 C
  atom 4.6977970144858414 4.1942383576403763 12.7345950774167491 C
  atom 9.7352025964141582 2.9987614821596229 14.1254055329832511 C
  atom 9.7352025964141582 2.9987614821596229 12.7345950774167491 C
  atom 4.6977970144858414 4.1942383576403763 14.1254055329832511 C
  atom 2.5187027909641579 0.5977384377403766 14.1254055329832511 C
  atom 11.9142968199358421 6.5952614020596227 12.7345950774167491 C
  atom 13.3867518010648485 6.2399274113774981 2.8750945459172179 C
  atom 1.0462481273611413 0.9530724284225012 23.9849064673827890 C
  atom 6.1702515626248609 4.5495723483225010 23.9849064673827890 C
  atom 8.2627476152851500 2.6434274914774987 2.8750945459172179 C
  atom 8.2627476152851500 2.6434274914774987 23.9849064673827890 C
  atom 6.1702515626248609 4.5495723483225010 2.8750945459172179 C
  atom 1.0462481273611413 0.9530724284225012 2.8750945459172179 C
  atom 13.3867518010648485 6.2399274113774981 23.9849064673827890 C
  atom 13.3867518010648485 2.6434274914774987 16.3050944482172113 C
  atom 1.0462481273611413 4.5495723483225010 10.5549061621827924 C
  atom 6.1702515626248609 0.9530724284225012 10.5549061621827924 C
  atom 8.2627476152851500 6.2399274113774981 16.3050944482172113 C
  atom 8.2627476152851500 6.2399274113774981 10.5549061621827924 C
  atom 6.1702515626248609 0.9530724284225012 16.3050944482172113 C
  atom 1.0462481273611413 4.5495723483225010 16.3050944482172113 C
  atom 13.3867518010648485 2.6434274914774987 10.5549061621827924 C
  atom 13.9952467038354023 5.4379077494148023 3.8280871795542057 C
  atom 0.4377528781985970 1.7550919824901994 23.0319130548057842 C
  atom 6.7787468983854033 5.3515920102851968 23.0319130548057842 C
  atom 7.6542527125145963 1.8414078295148029 3.8280871795542057 C
  atom 7.6542527125145963 1.8414078295148029 23.0319130548057842 C
  atom 6.7787468983854033 5.3515920102851968 3.8280871795542057 C
  atom 0.4377528781985970 1.7550919824901994 3.8280871795542057 C
  atom 13.9952467038354023 5.4379077494148023 23.0319130548057842 C
  atom 13.9952467038354023 1.8414078295148029 17.2580878607942161 C
  atom 0.4377528781985970 5.3515920102851968 9.6019127496057859 C
  atom 6.7787468983854033 1.7550919824901994 9.6019127496057859 C
  atom 7.6542527125145963 5.4379077494148023 17.2580878607942161 C
  atom 7.6542527125145963 5.4379077494148023 9.6019127496057859 C
  atom 6.7787468983854033 1.7550919824901994 17.2580878607942161 C
  atom 0.4377528781985970 5.3515920102851968 17.2580878607942161 C
  atom 13.9952467038354023 1.8414078295148029 9.6019127496057859 C
  atom 13.5547512381847444 5.4271186021120945 5.1289172777158836 C
  atom 0.8782479974572658 1.7658814462849002 21.7310825268840979 C
  atom 6.3382518657247324 5.3623811575879055 21.7310825268840979 C
  atom 8.0947481781652542 1.8306184736150997 5.1289172777158836 C
  atom 8.0947481781652542 1.8306184736150997 21.7310825268840979 C
  atom 6.3382518657247324 5.3623811575879055 5.1289172777158836 C
  atom 0.8782479974572658 1.7658814462849002 5.1289172777158836 C
  atom 13.5547512381847444 5.4271186021120945 21.7310825268840979 C
  atom 13.5547512381847444 1.8306184736150997 18.5589183887159024 C
  atom 0.8782479974572658 5.3623811575879055 8.3010830274841165 C
  atom 6.3382518657247324 1.7658814462849002 8.3010830274841165 C
  atom 8.0947481781652542 5.4271186021120945 18.5589183887159024 C
  atom 8.0947481781652542 5.4271186021120945 8.3010830274841165 C
  atom 6.3382518657247324 1.7658814462849002 18.5589183887159024 C
  atom 0.8782479974572658 5.3623811575879055 18.5589183887159024 C
  atom 13.5547512381847444 1.8306184736150997 8.3010830274841165 C
  atom 12.5056163521384267 6.2212255110920207 5.5154324716195351 C
  atom 1.9273828257715842 0.9717743287079788 21.3445673329804499 C
  atom 5.2891169796784157 4.5682742486079793 21.3445673329804499 C
  atom 9.1438830642115736 2.6247255911920209 5.5154324716195351 C
  atom 9.1438830642115736 2.6247255911920209 21.3445673329804499 C
  atom 5.2891169796784157 4.5682742486079793 5.5154324716195351 C
  atom 1.9273828257715842 0.9717743287079788 5.5154324716195351 C
  atom 12.5056163521384267 6.2212255110920207 21.3445673329804499 C
  atom 12.5056163521384267 2.6247255911920209 18.9454335826195504 C
  atom 1.9273828257715842 4.5682742486079793 7.9145678335804650 C
  atom 5.2891169796784157 0.9717743287079788 7.9145678335804650 C
  atom 9.1438830642115736 6.2212255110920207 18.9454335826195504 C
  atom 9.1438830642115736 6.2212255110920207 7.9145678335804650 C
  atom 5.2891169796784157 0.9717743287079788 18.9454335826195504 C
  atom 1.9273828257715842 4.5682742486079793 18.9454335826195504 C
  atom 12.5056163521384267 2.6247255911920209 7.9145678335804650 C
  atom 11.8888946540226588 7.0196485005028206 4.5890309431268363 C
  atom 2.5441047403823460 0.1733512961391800 22.2709700701731741 C
  atom 4.6723948485726607 3.7698512591971785 22.2709700701731741 C
  atom 9.7606047623273398 3.4231485806028208 4.5890309431268363 C
  atom 9.7606047623273398 3.4231485806028208 22.2709700701731741 C
  atom 4.6723948485726607 3.7698512591971785 4.5890309431268363 C
  atom 2.5441047403823460 0.1733512961391800 4.5890309431268363 C
  atom 11.8888946540226588 7.0196485005028206 22.2709700701731741 C
  atom 11.8888946540226588 3.4231485806028208 18.0190308454268262 C
  atom 2.5441047403823460 3.7698512591971785 8.8409697649731740 C
  atom 4.6723948485726607 0.1733512961391800 8.8409697649731740 C
  atom 9.7606047623273398 7.0196485005028206 18.0190308454268262 C
  atom 9.7606047623273398 7.0196485005028206 8.8409697649731740 C
  atom 4.6723948485726607 0.1733512961391800 18.0190308454268262 C
  atom 2.5441047403823460 3.7698512591971785 18.0190308454268262 C
  atom 11.8888946540226588 3.4231485806028208 8.8409697649731740 C
  atom 12.3202970268254610 7.0304380793855188 3.2804118476881516 C
  atom 2.1127025840745395 0.1625618035724798 23.5795893536318637 C
  atom 5.1037972213754612 3.7590616803144807 23.5795893536318637 C
  atom 9.3292023895245393 3.4339381594855189 3.2804118476881516 C
  atom 9.3292023895245393 3.4339381594855189 23.5795893536318637 C
  atom 5.1037972213754612 3.7590616803144807 3.2804118476881516 C
  atom 2.1127025840745395 0.1625618035724798 3.2804118476881516 C
  atom 12.3202970268254610 7.0304380793855188 23.5795893536318637 C
  atom 12.3202970268254610 3.4339381594855189 16.7104115619681366 C
  atom 2.1127025840745395 3.7590616803144807 10.1495882426318449 C
  atom 5.1037972213754612 0.1625618035724798 10.1495882426318449 C
  atom 9.3292023895245393 7.0304380793855188 16.7104115619681366 C
  atom 9.3292023895245393 7.0304380793855188 10.1495882426318449 C
  atom 5.1037972213754612 0.1625618035724798 16.7104115619681366 C
  atom 2.1127025840745395 3.7590616803144807 16.7104115619681366 C
  atom 12.3202970268254610 3.4339381594855189 10.1495882426318449 C
  atom 12.5004211506294833 4.0208870183431973 2.3502500265499995 H
  atom 1.9325786767655091 3.1721130372467976 24.5097512016300136 H
  atom 5.2839213451794844 6.7686127413568027 24.5097512016300136 H
  atom 9.1490782657205152 0.4243868826532023 2.3502500265499995 H
  atom 9.1490782657205152 0.4243868826532023 24.5097512016300136 H
  atom 5.2839213451794844 6.7686127413568027 2.3502500265499995 H
  atom 1.9325786767655091 3.1721130372467976 2.3502500265499995 H
  atom 12.5004211506294833 4.0208870183431973 24.5097512016300136 H
  atom 12.5004211506294833 0.4243868826532023 15.7802497139699867 H
  atom 1.9325786767655091 6.7686127413568027 11.0797500906299966 H
  atom 5.2839213451794844 3.1721130372467976 11.0797500906299966 H
  atom 9.1490782657205152 4.0208870183431973 15.7802497139699867 H
  atom 9.1490782657205152 4.0208870183431973 11.0797500906299966 H
  atom 5.2839213451794844 3.1721130372467976 15.7802497139699867 H
  atom 1.9325786767655091 6.7686127413568027 15.7802497139699867 H
  atom 12.5004211506294833 0.4243868826532023 11.0797500906299966 H
  atom 11.4742349360264928 2.3017598983850007 1.1925840002417594 H
  atom 2.9587648913685007 4.8912399414149981 25.6674172010782549 H
  atom 4.2577351305764930 1.2947400215149987 25.6674172010782549 H
  atom 10.1752644803235057 5.8982598182850010 1.1925840002417594 H
  atom 10.1752644803235057 5.8982598182850010 25.6674172010782549 H
  atom 4.2577351305764930 1.2947400215149987 1.1925840002417594 H
  atom 2.9587648913685007 4.8912399414149981 1.1925840002417594 H
  atom 11.4742349360264928 2.3017598983850007 25.6674172010782549 H
  atom 11.4742349360264928 5.8982598182850010 14.6225837145217454 H
  atom 2.9587648913685007 1.2947400215149987 12.2374160900782361 H
  atom 4.2577351305764930 4.8912399414149981 12.2374160900782361 H
  atom 10.1752644803235057 2.3017598983850007 14.6225837145217454 H
  atom 10.1752644803235057 2.3017598983850007 12.2374160900782361 H
  atom 4.2577351305764930 4.8912399414149981 14.6225837145217454 H
  atom 2.9587648913685007 1.2947400215149987 14.6225837145217454 H
  atom 11.4742349360264928 5.8982598182850010 12.2374160900782361 H
  atom 0.3074228772791704 4.8624678845117995 3.5401479730107175 H
  atom 14.1255764593938355 2.3305319552881998 23.3198526373892818 H
  atom 7.5239229569561630 5.9270318751881996 23.3198526373892818 H
  atom 6.9090770869338254 1.2659679646118001 3.5401479730107175 H
  atom 6.9090770869338254 1.2659679646118001 23.3198526373892818 H
  atom 7.5239229569561630 5.9270318751881996 3.5401479730107175 H
  atom 14.1255764593938355 2.3305319552881998 3.5401479730107175 H
  atom 0.3074228772791704 4.8624678845117995 23.3198526373892818 H
  atom 0.3074228772791704 1.2659679646118001 16.9701482782107185 H
  atom 14.1255764593938355 5.9270318751881996 9.8898523321892835 H
  atom 7.5239229569561630 2.3305319552881998 9.8898523321892835 H
  atom 6.9090770869338254 4.8624678845117995 16.9701482782107185 H
  atom 6.9090770869338254 4.8624678845117995 9.8898523321892835 H
  atom 7.5239229569561630 2.3305319552881998 16.9701482782107185 H
  atom 14.1255764593938355 5.9270318751881996 16.9701482782107185 H
  atom 0.3074228772791704 1.2659679646118001 9.8898523321892835 H
  atom 14.0202161539872492 4.8840470350841967 5.8151901052915997 H
  atom 0.4127837888717400 2.3089530205057982 21.0448109080084080 H
  atom 6.8037159155472624 5.9054527246158024 21.0448109080084080 H
  atom 7.6292832623627493 1.2875468993942016 5.8151901052915997 H
  atom 7.6292832623627493 1.2875468993942016 21.0448109080084080 H
  atom 6.8037159155472624 5.9054527246158024 5.8151901052915997 H
  atom 0.4127837888717400 2.3089530205057982 5.8151901052915997 H
  atom 14.0202161539872492 4.8840470350841967 21.0448109080084080 H
  atom 14.0202161539872492 1.2875468993942016 19.2451900075915923 H
  atom 0.4127837888717400 5.9054527246158024 7.6148106028084106 H
  atom 6.8037159155472624 2.3089530205057982 7.6148106028084106 H
  atom 7.6292832623627493 4.8840470350841967 19.2451900075915923 H
  atom 7.6292832623627493 4.8840470350841967 7.6148106028084106 H
  atom 6.8037159155472624 2.3089530205057982 19.2451900075915923 H
  atom 0.4127837888717400 5.9054527246158024 19.2451900075915923 H
  atom 14.0202161539872492 1.2875468993942016 7.6148106028084106 H
  atom 12.2622767147816329 6.2363307460186022 6.4705740127453568 H
  atom 2.1707231126133610 0.9566689858863998 20.3894270005546510 H
  atom 5.0457769093316331 4.5531690136813969 20.3894270005546510 H
  atom 9.3872227015683674 2.6398308261186023 6.4705740127453568 H
  atom 9.3872227015683674 2.6398308261186023 20.3894270005546510 H
  atom 5.0457769093316331 4.5531690136813969 6.4705740127453568 H
  atom 2.1707231126133610 0.9566689858863998 6.4705740127453568 H
  atom 12.2622767147816329 6.2363307460186022 20.3894270005546510 H
  atom 12.2622767147816329 2.6398308261186023 19.9005739150453493 H
  atom 2.1707231126133610 4.5531690136813969 6.9594266953546517 H
  atom 5.0457769093316331 0.9566689858863998 6.9594266953546517 H
  atom 9.3872227015683674 6.2363307460186022 19.9005739150453493 H
  atom 9.3872227015683674 6.2363307460186022 6.9594266953546517 H
  atom 5.0457769093316331 0.9566689858863998 19.9005739150453493 H
  atom 2.1707231126133610 4.5531690136813969 19.9005739150453493 H
  atom 12.2622767147816329 2.6398308261186023 6.9594266953546517 H
  atom 11.1610384836449725 0.4315799831950001 4.8186840289257580 H
  atom 3.2719609107600323 6.7614198350260004 22.0413173872742583 H
  atom 3.9445386781949727 3.1649199151260001 22.0413173872742583 H
  atom 10.4884609327050260 4.0280799246739996 4.8186840289257580 H
  atom 10.4884609327050260 4.0280799246739996 22.0413173872742583 H
  atom 3.9445386781949727 3.1649199151260001 4.8186840289257580 H
  atom 3.2719609107600323 6.7614198350260004 4.8186840289257580 H
  atom 11.1610384836449725 0.4315799831950001 22.0413173872742583 H
  atom 11.1610384836449725 4.0280799246739996 18.2486835283257420 H
  atom 3.2719609107600323 3.1649199151260001 8.6113162762742430 H
  atom 3.9445386781949727 6.7614198350260004 8.6113162762742430 H
  atom 10.4884609327050260 0.4315799831950001 18.2486835283257420 H
  atom 10.4884609327050260 0.4315799831950001 8.6113162762742430 H
  atom 3.9445386781949727 6.7614198350260004 18.2486835283257420 H
  atom 3.2719609107600323 3.1649199151260001 18.2486835283257420 H
  atom 11.1610384836449725 4.0280799246739996 8.6113162762742430 H
  atom 11.8884619382613259 0.3956149911890000 2.5651300582932000 H
  atom 2.5445378891336685 6.7973847982600013 24.2948707669868043 H
  atom 4.6719621328113261 3.2008848783600010 24.2948707669868043 H
  atom 9.7610374780886744 3.9921149614399982 2.5651300582932000 H
  atom 9.7610374780886744 3.9921149614399982 24.2948707669868043 H
  atom 4.6719621328113261 3.2008848783600010 2.5651300582932000 H
  atom 2.5445378891336685 6.7973847982600013 2.5651300582932000 H
  atom 11.8884619382613259 0.3956149911890000 24.2948707669868043 H
  atom 11.8884619382613259 3.9921149614399982 15.9951301486131960 H
  atom 2.5445378891336685 3.2008848783600010 10.8648704617868059 H
  atom 4.6719621328113261 6.7973847982600013 10.8648704617868059 H
  atom 9.7610374780886744 0.3956149911890000 15.9951301486131960 H
  atom 9.7610374780886744 0.3956149911890000 10.8648704617868059 H
  atom 4.6719621328113261 6.7973847982600013 15.9951301486131960 H
  atom 2.5445378891336685 3.2008848783600010 15.9951301486131960 H
  atom 11.8884619382613259 3.9921149614399982 10.8648704617868059 H
  
  -----------------------------------------------------------------------
  Completed first pass over input file geometry.in .
  -----------------------------------------------------------------------
  

  Basic array size parameters:
  | Number of species                 :        2
  | Number of atoms                   :      280
  | Number of lattice vectors         :        3
  | Max. basis fn. angular momentum   :        2
  | Max. atomic/ionic basis occupied n:        2
  | Max. number of basis fn. types    :        2
  | Max. radial fns per species/type  :        3
  | Max. logarithmic grid size        :     1277
  | Max. radial integration grid size :       34
  | Max. angular integration grid size:      302
  | Max. angular grid division number :        8
  | Radial grid for Hartree potential :     1277
  | Number of spin channels           :        1

------------------------------------------------------------
          Reading file control.in.
------------------------------------------------------------
  XC: Using PBE gradient-corrected functionals.
  Spin treatment: No spin polarisation.
  Scalar relativistic treatment of kinetic energy: on-site free-atom approximation to ZORA.
  Convergence accuracy of sum of eigenvalues: 0.1000E-02
  Convergence accuracy of total energy: 0.1000E-05
  Convergence accuracy of self-consistent charge density: 0.1000E-03
  Maximum number of s.-c. iterations  :   200
  Occupation type: Gaussian broadening, width =   0.100000E-01 eV.
  Using pulay charge density mixing.
  Pulay mixing - number of memorized iterations:   10
  Charge density mixing - mixing parameter:     0.1000
  Found k-point grid:         2         3         1

  Plot band    1
  | begin  0.000000  0.000000  0.000000
  | end    0.500000  0.000000  0.000000
  | number of points:   10

  Plot band    2
  | begin  0.000000  0.010000  0.000000
  | end    0.500000  0.010000  0.000000
  | number of points:   10

  Plot band    3
  | begin  0.000000  0.020000  0.000000
  | end    0.500000  0.020000  0.000000
  | number of points:   10

  Plot band    4
  | begin  0.000000  0.030000  0.000000
  | end    0.500000  0.030000  0.000000
  | number of points:   10

  Plot band    5
  | begin  0.000000  0.040000  0.000000
  | end    0.500000  0.040000  0.000000
  | number of points:   10

  Plot band    6
  | begin  0.000000  0.050000  0.000000
  | end    0.500000  0.050000  0.000000
  | number of points:   10

  Plot band    7
  | begin  0.000000  0.060000  0.000000
  | end    0.500000  0.060000  0.000000
  | number of points:   10

  Plot band    8
  | begin  0.000000  0.070000  0.000000
  | end    0.500000  0.070000  0.000000
  | number of points:   10

  Plot band    9
  | begin  0.000000  0.080000  0.000000
  | end    0.500000  0.080000  0.000000
  | number of points:   10

  Plot band   10
  | begin  0.000000  0.090000  0.000000
  | end    0.500000  0.090000  0.000000
  | number of points:   10

  Plot band   11
  | begin  0.000000  0.100000  0.000000
  | end    0.500000  0.100000  0.000000
  | number of points:   10

  Plot band   12
  | begin  0.000000  0.110000  0.000000
  | end    0.500000  0.110000  0.000000
  | number of points:   10

  Plot band   13
  | begin  0.000000  0.120000  0.000000
  | end    0.500000  0.120000  0.000000
  | number of points:   10

  Plot band   14
  | begin  0.000000  0.130000  0.000000
  | end    0.500000  0.130000  0.000000
  | number of points:   10

  Plot band   15
  | begin  0.000000  0.140000  0.000000
  | end    0.500000  0.140000  0.000000
  | number of points:   10

  Plot band   16
  | begin  0.000000  0.150000  0.000000
  | end    0.500000  0.150000  0.000000
  | number of points:   10

  Plot band   17
  | begin  0.000000  0.160000  0.000000
  | end    0.500000  0.160000  0.000000
  | number of points:   10

  Plot band   18
  | begin  0.000000  0.170000  0.000000
  | end    0.500000  0.170000  0.000000
  | number of points:   10

  Plot band   19
  | begin  0.000000  0.180000  0.000000
  | end    0.500000  0.180000  0.000000
  | number of points:   10

  Plot band   20
  | begin  0.000000  0.190000  0.000000
  | end    0.500000  0.190000  0.000000
  | number of points:   10

  Plot band   21
  | begin  0.000000  0.200000  0.000000
  | end    0.500000  0.200000  0.000000
  | number of points:   10

  Plot band   22
  | begin  0.000000  0.210000  0.000000
  | end    0.500000  0.210000  0.000000
  | number of points:   10

  Plot band   23
  | begin  0.000000  0.220000  0.000000
  | end    0.500000  0.220000  0.000000
  | number of points:   10

  Plot band   24
  | begin  0.000000  0.230000  0.000000
  | end    0.500000  0.230000  0.000000
  | number of points:   10

  Plot band   25
  | begin  0.000000  0.240000  0.000000
  | end    0.500000  0.240000  0.000000
  | number of points:   10

  Plot band   26
  | begin  0.000000  0.250000  0.000000
  | end    0.500000  0.250000  0.000000
  | number of points:   10

  Plot band   27
  | begin  0.000000  0.260000  0.000000
  | end    0.500000  0.260000  0.000000
  | number of points:   10

  Plot band   28
  | begin  0.000000  0.270000  0.000000
  | end    0.500000  0.270000  0.000000
  | number of points:   10

  Plot band   29
  | begin  0.000000  0.280000  0.000000
  | end    0.500000  0.280000  0.000000
  | number of points:   10

  Plot band   30
  | begin  0.000000  0.290000  0.000000
  | end    0.500000  0.290000  0.000000
  | number of points:   10

  Plot band   31
  | begin  0.000000  0.300000  0.000000
  | end    0.500000  0.300000  0.000000
  | number of points:   10

  Plot band   32
  | begin  0.000000  0.310000  0.000000
  | end    0.500000  0.310000  0.000000
  | number of points:   10

  Plot band   33
  | begin  0.000000  0.320000  0.000000
  | end    0.500000  0.320000  0.000000
  | number of points:   10

  Plot band   34
  | begin  0.000000  0.330000  0.000000
  | end    0.500000  0.330000  0.000000
  | number of points:   10

  Plot band   35
  | begin  0.000000  0.340000  0.000000
  | end    0.500000  0.340000  0.000000
  | number of points:   10

  Plot band   36
  | begin  0.000000  0.350000  0.000000
  | end    0.500000  0.350000  0.000000
  | number of points:   10

  Plot band   37
  | begin  0.000000  0.360000  0.000000
  | end    0.500000  0.360000  0.000000
  | number of points:   10

  Plot band   38
  | begin  0.000000  0.370000  0.000000
  | end    0.500000  0.370000  0.000000
  | number of points:   10

  Plot band   39
  | begin  0.000000  0.380000  0.000000
  | end    0.500000  0.380000  0.000000
  | number of points:   10

  Plot band   40
  | begin  0.000000  0.390000  0.000000
  | end    0.500000  0.390000  0.000000
  | number of points:   10

  Plot band   41
  | begin  0.000000  0.400000  0.000000
  | end    0.500000  0.400000  0.000000
  | number of points:   10

  Plot band   42
  | begin  0.000000  0.410000  0.000000
  | end    0.500000  0.410000  0.000000
  | number of points:   10

  Plot band   43
  | begin  0.000000  0.420000  0.000000
  | end    0.500000  0.420000  0.000000
  | number of points:   10

  Plot band   44
  | begin  0.000000  0.430000  0.000000
  | end    0.500000  0.430000  0.000000
  | number of points:   10

  Plot band   45
  | begin  0.000000  0.440000  0.000000
  | end    0.500000  0.440000  0.000000
  | number of points:   10

  Plot band   46
  | begin  0.000000  0.450000  0.000000
  | end    0.500000  0.450000  0.000000
  | number of points:   10

  Plot band   47
  | begin  0.000000  0.460000  0.000000
  | end    0.500000  0.460000  0.000000
  | number of points:   10

  Plot band   48
  | begin  0.000000  0.470000  0.000000
  | end    0.500000  0.470000  0.000000
  | number of points:   10

  Plot band   49
  | begin  0.000000  0.480000  0.000000
  | end    0.500000  0.480000  0.000000
  | number of points:   10

  Plot band   50
  | begin  0.000000  0.490000  0.000000
  | end    0.500000  0.490000  0.000000
  | number of points:   10

  Plot band   51
  | begin  0.000000  0.500000  0.000000
  | end    0.500000  0.500000  0.000000
  | number of points:   10
 
  Reading configuration options for species C                   .
  | Found nuclear charge :   6.0000
  | Found atomic mass :    12.0107000000000      amu
  | Found l_max for Hartree potential  :   4
  | Found cutoff potl. onset [A], width [A], scale factor :    3.50000    1.50000    1.00000
  | Threshold for basis-dependent cutoff potential is   0.100000E-03
  | Found data for basic radial integration grid :    34 points, outermost radius =    5.000 A
  | Found multiplier for basic radial grid :   1
  | Found angular grid specification: user-specified.
  | Specified grid contains     5 separate shells.
  | Check grid settings after all constraints further below.
  | Found free-atom valence shell :  2 s   2.000
  | Found free-atom valence shell :  2 p   2.000
  | No ionic wave fns used. Skipping ion_occ.
  | No ionic wave fns used. Skipping ion_occ.
  | Found hydrogenic basis function :  2 p   1.700
  | Found hydrogenic basis function :  3 d   6.000
  | Found hydrogenic basis function :  2 s   4.900
  Species C                   : Missing cutoff potential type.
  Defaulting to exp(1/x)/(1-x)^2 type cutoff potential.
  Species C : No 'logarithmic' tag. Using default grid for free atom:
  | Default logarithmic grid data [bohr] : 0.1000E-03 0.1000E+03 0.1012E+01
  Species C : On-site basis accuracy parameter (for Gram-Schmidt orthonormalisation) not specified.
  Using default value basis_acc =  0.1000000E-03.
  Species C                   : Using default innermost maximum threshold i_radial=  2 for radial functions.
  Species C                   : Default cutoff onset for free atom density etc. : 0.35000000E+01 AA.
  Species C                   : Basic radial grid will be enhanced according to radial_multiplier =   1, to contain    34 grid points.
 
  Reading configuration options for species H                   .
  | Found nuclear charge :   1.0000
  | Found atomic mass :    1.00794000000000      amu
  | Found l_max for Hartree potential  :   4
  | Found cutoff potl. onset [A], width [A], scale factor :    3.50000    1.50000    1.00000
  | Threshold for basis-dependent cutoff potential is   0.100000E-03
  | Found data for basic radial integration grid :    24 points, outermost radius =    5.000 A
  | Found multiplier for basic radial grid :   1
  | Found angular grid specification: user-specified.
  | Specified grid contains     5 separate shells.
  | Check grid settings after all constraints further below.
  | Found free-atom valence shell :  1 s   1.000
  | No ionic wave fns used. Skipping ion_occ.
  | Found hydrogenic basis function :  2 s   2.100
  | Found hydrogenic basis function :  2 p   3.500
  Species H                   : Missing cutoff potential type.
  Defaulting to exp(1/x)/(1-x)^2 type cutoff potential.
  Species H : No 'logarithmic' tag. Using default grid for free atom:
  | Default logarithmic grid data [bohr] : 0.1000E-03 0.1000E+03 0.1012E+01
  Species H : On-site basis accuracy parameter (for Gram-Schmidt orthonormalisation) not specified.
  Using default value basis_acc =  0.1000000E-03.
  Species H                   : Using default innermost maximum threshold i_radial=  2 for radial functions.
  Species H                   : Default cutoff onset for free atom density etc. : 0.35000000E+01 AA.
  Species H                   : Basic radial grid will be enhanced according to radial_multiplier =   1, to contain    24 grid points.
 
  Finished reading input file 'control.in'. Consistency checks are next.
 
  Target number of points in a grid batch is not set. Defaulting to  100
  Method for grid partitioning is not set. Defaulting to parallel hash+maxmin partitioning.
  Batch size limit is not set. Defaulting to    200
  By default, will store active basis functions for each batch.
  If in need of memory, prune_basis_once .false. can be used to disable this option.
  communication_type for Hartree potential was not specified.
  Defaulting to calc_hartree .
  Pulay mixer: Number of initial linear mixing iterations not set.
  Defaulting to    0 iterations.
  Work space size for distributed Hartree potential not set.
  Defaulting to   0.200000E+03 MB.
  Algorithm-dependent basis array size parameters:
  | n_max_pulay                         :       10
  Calculation of forces was not defined in control.in. No forces will be calculated.
  Geometry relaxation not requested: no relaxation will be performed.
  No accuracy limit for integral partition fn. given. Defaulting to 0.1000E-14.
  No threshold value for u(r) in integrations given. Defaulting to 0.1000E-05.
  No accuracy for occupation numbers given. Defaulting to 0.1000E-07.
  No threshold value for occupation numbers given. Defaulting to 0.0000E+00.
  No accuracy for fermi level given. Defaulting to 0.1000E-19.
  Maximum # of iterations to find E_F not set. Defaulting to  200.
  Preferred method for the eigenvalue solver ('KS_method') not specified in 'control.in'.
  Calling blacs routine to test compilation state
  Since scalapack support is enabled, defaulting to 'elpa'.
  Will not use alltoall communication since running on < 1024 CPUs.
  Threshold for basis singularities not set.
  Default threshold for basis singularities: 0.1000E-04
  partition_type (choice of integration weights) for integrals was not specified.
  | Using a version of the partition function of Stratmann and coworkers ('stratmann_smoother').
  | At each grid point, the set of atoms used to build the partition table is smoothly restricted to
  | only those atoms whose free-atom density would be non-zero at that grid point.
  Partitioning for Hartree potential was not defined. Using partition_type for integrals.
  | Adjusted default value of keyword multip_moments_threshold to:       0.10000000E-11
  | This value may affect high angular momentum components of the Hartree potential in periodic systems.
  Angular momentum expansion for Kerker preconditioner not set explicitly.
  | Using default value of   0
  No explicit requirement for turning off preconditioner.
  | By default, it will be turned off when the charge convergence reaches
  | sc_accuracy_rho  =   0.100000E-03
  | sc_accuracy_eev  =   0.100000E-02
  | sc_accuracy_etot =   0.100000E-05
  No special mixing parameter while Kerker preconditioner is on.
  Using default: charge_mix_param =     0.1000.
  No q(lm)/r^(l+1) cutoff set for long-range Hartree potential.
  | Using default value of  0.100000E-09 .
  | Verify using the multipole_threshold keyword.
  Defaulting to new monopole extrapolation.
  Density update method: automatic selection selected.
  Using density matrix based charge density update.
  Using density matrix based charge density update.
  Using packed matrix style: index .
  Defaulting to use time-reversal symmetry for k-point grid.
------------------------------------------------------------


------------------------------------------------------------
          Reading geometry description geometry.in.
------------------------------------------------------------
  Input structure read successfully.
  The structure contains      280 atoms,  and a total of       1120.000 electrons.

  Input geometry:
  | Unit cell:
  |        14.433000         0.000000         0.000000
  |         0.000000         7.193000         0.000000
  |         0.000000         0.000000        26.860001
  | Atomic structure:
  |       Atom                x [A]            y [A]            z [A]
  |    1: Species C              0.000000         0.000000         0.726563
  |    2: Species C              0.000000         0.000000        26.133437
  |    3: Species C              7.216500         3.596500        26.133437
  |    4: Species C              7.216500         3.596500         0.726563
  |    5: Species C              0.000000         3.596500        14.156564
  |    6: Species C              0.000000         3.596500        12.703438
  |    7: Species C              7.216500         0.000000        12.703438
  |    8: Species C              7.216500         0.000000        14.156564
  |    9: Species C             13.726216         6.165120         1.421968
  |   10: Species C              0.706784         1.027880        25.438032
  |   11: Species C              6.509716         4.624380        25.438032
  |   12: Species C              7.923284         2.568620         1.421968
  |   13: Species C              7.923284         2.568620        25.438032
  |   14: Species C              6.509716         4.624380         1.421968
  |   15: Species C              0.706784         1.027880         1.421968
  |   16: Species C             13.726216         6.165120        25.438032
  |   17: Species C             13.726216         2.568620        14.851969
  |   18: Species C              0.706784         4.624380        12.008032
  |   19: Species C              6.509716         1.027880        12.008032
  |   20: Species C              7.923284         6.165120        14.851969
  |   21: Species C              7.923284         6.165120        12.008032
  |   22: Species C              6.509716         1.027880        14.851969
  |   23: Species C              0.706784         4.624380        14.851969
  |   24: Species C             13.726216         2.568620        12.008032
  |   25: Species C             13.169246         5.086889         0.713939
  |   26: Species C              1.263753         2.106110        26.146062
  |   27: Species C              5.952746         5.702610        26.146062
  |   28: Species C              8.480253         1.490390         0.713939
  |   29: Species C              8.480253         1.490390        26.146062
  |   30: Species C              5.952746         5.702610         0.713939
  |   31: Species C              1.263753         2.106110         0.713939
  |   32: Species C             13.169246         5.086889        26.146062
  |   33: Species C             13.169246         1.490390        14.143938
  |   34: Species C              1.263753         5.702610        12.716061
  |   35: Species C              5.952746         2.106110        12.716061
  |   36: Species C              8.480253         5.086889        14.143938
  |   37: Species C              8.480253         5.086889        12.716061
  |   38: Species C              5.952746         2.106110        14.143938
  |   39: Species C              1.263753         5.702610        14.143938
  |   40: Species C             13.169246         1.490390        12.716061
  |   41: Species C             12.506627         4.004343         1.382484
  |   42: Species C              1.926372         3.188657        25.477517
  |   43: Species C              5.290127         6.785157        25.477517
  |   44: Species C              9.142872         0.407843         1.382484
  |   45: Species C              9.142872         0.407843        25.477517
  |   46: Species C              5.290127         6.785157         1.382484
  |   47: Species C              1.926372         3.188657         1.382484
  |   48: Species C             12.506627         4.004343        25.477517
  |   49: Species C             12.506627         0.407843        14.812484
  |   50: Species C              1.926372         6.785157        12.047516
  |   51: Species C              5.290127         3.188657        12.047516
  |   52: Species C              9.142872         4.004343        14.812484
  |   53: Species C              9.142872         4.004343        12.047516
  |   54: Species C              5.290127         3.188657        14.812484
  |   55: Species C              1.926372         6.785157        14.812484
  |   56: Species C             12.506627         0.407843        12.047516
  |   57: Species C             11.914297         2.998761         0.695405
  |   58: Species C              2.518703         4.194238        26.164595
  |   59: Species C              4.697797         0.597738        26.164595
  |   60: Species C              9.735203         6.595261         0.695405
  |   61: Species C              9.735203         6.595261        26.164595
  |   62: Species C              4.697797         0.597738         0.695405
  |   63: Species C              2.518703         4.194238         0.695405
  |   64: Species C             11.914297         2.998761        26.164595
  |   65: Species C             11.914297         6.595261        14.125406
  |   66: Species C              2.518703         0.597738        12.734595
  |   67: Species C              4.697797         4.194238        12.734595
  |   68: Species C              9.735203         2.998761        14.125406
  |   69: Species C              9.735203         2.998761        12.734595
  |   70: Species C              4.697797         4.194238        14.125406
  |   71: Species C              2.518703         0.597738        14.125406
  |   72: Species C             11.914297         6.595261        12.734595
  |   73: Species C             13.386752         6.239927         2.875095
  |   74: Species C              1.046248         0.953072        23.984906
  |   75: Species C              6.170252         4.549572        23.984906
  |   76: Species C              8.262748         2.643427         2.875095
  |   77: Species C              8.262748         2.643427        23.984906
  |   78: Species C              6.170252         4.549572         2.875095
  |   79: Species C              1.046248         0.953072         2.875095
  |   80: Species C             13.386752         6.239927        23.984906
  |   81: Species C             13.386752         2.643427        16.305094
  |   82: Species C              1.046248         4.549572        10.554906
  |   83: Species C              6.170252         0.953072        10.554906
  |   84: Species C              8.262748         6.239927        16.305094
  |   85: Species C              8.262748         6.239927        10.554906
  |   86: Species C              6.170252         0.953072        16.305094
  |   87: Species C              1.046248         4.549572        16.305094
  |   88: Species C             13.386752         2.643427        10.554906
  |   89: Species C             13.995247         5.437908         3.828087
  |   90: Species C              0.437753         1.755092        23.031913
  |   91: Species C              6.778747         5.351592        23.031913
  |   92: Species C              7.654253         1.841408         3.828087
  |   93: Species C              7.654253         1.841408        23.031913
  |   94: Species C              6.778747         5.351592         3.828087
  |   95: Species C              0.437753         1.755092         3.828087
  |   96: Species C             13.995247         5.437908        23.031913
  |   97: Species C             13.995247         1.841408        17.258088
  |   98: Species C              0.437753         5.351592         9.601913
  |   99: Species C              6.778747         1.755092         9.601913
  |  100: Species C              7.654253         5.437908        17.258088
  |  101: Species C              7.654253         5.437908         9.601913
  |  102: Species C              6.778747         1.755092        17.258088
  |  103: Species C              0.437753         5.351592        17.258088
  |  104: Species C             13.995247         1.841408         9.601913
  |  105: Species C             13.554751         5.427119         5.128917
  |  106: Species C              0.878248         1.765881        21.731083
  |  107: Species C              6.338252         5.362381        21.731083
  |  108: Species C              8.094748         1.830618         5.128917
  |  109: Species C              8.094748         1.830618        21.731083
  |  110: Species C              6.338252         5.362381         5.128917
  |  111: Species C              0.878248         1.765881         5.128917
  |  112: Species C             13.554751         5.427119        21.731083
  |  113: Species C             13.554751         1.830618        18.558918
  |  114: Species C              0.878248         5.362381         8.301083
  |  115: Species C              6.338252         1.765881         8.301083
  |  116: Species C              8.094748         5.427119        18.558918
  |  117: Species C              8.094748         5.427119         8.301083
  |  118: Species C              6.338252         1.765881        18.558918
  |  119: Species C              0.878248         5.362381        18.558918
  |  120: Species C             13.554751         1.830618         8.301083
  |  121: Species C             12.505616         6.221226         5.515432
  |  122: Species C              1.927383         0.971774        21.344567
  |  123: Species C              5.289117         4.568274        21.344567
  |  124: Species C              9.143883         2.624726         5.515432
  |  125: Species C              9.143883         2.624726        21.344567
  |  126: Species C              5.289117         4.568274         5.515432
  |  127: Species C              1.927383         0.971774         5.515432
  |  128: Species C             12.505616         6.221226        21.344567
  |  129: Species C             12.505616         2.624726        18.945434
  |  130: Species C              1.927383         4.568274         7.914568
  |  131: Species C              5.289117         0.971774         7.914568
  |  132: Species C              9.143883         6.221226        18.945434
  |  133: Species C              9.143883         6.221226         7.914568
  |  134: Species C              5.289117         0.971774        18.945434
  |  135: Species C              1.927383         4.568274        18.945434
  |  136: Species C             12.505616         2.624726         7.914568
  |  137: Species C             11.888895         7.019649         4.589031
  |  138: Species C              2.544105         0.173351        22.270970
  |  139: Species C              4.672395         3.769851        22.270970
  |  140: Species C              9.760605         3.423149         4.589031
  |  141: Species C              9.760605         3.423149        22.270970
  |  142: Species C              4.672395         3.769851         4.589031
  |  143: Species C              2.544105         0.173351         4.589031
  |  144: Species C             11.888895         7.019649        22.270970
  |  145: Species C             11.888895         3.423149        18.019031
  |  146: Species C              2.544105         3.769851         8.840970
  |  147: Species C              4.672395         0.173351         8.840970
  |  148: Species C              9.760605         7.019649        18.019031
  |  149: Species C              9.760605         7.019649         8.840970
  |  150: Species C              4.672395         0.173351        18.019031
  |  151: Species C              2.544105         3.769851        18.019031
  |  152: Species C             11.888895         3.423149         8.840970
  |  153: Species C             12.320297         7.030438         3.280412
  |  154: Species C              2.112703         0.162562        23.579589
  |  155: Species C              5.103797         3.759062        23.579589
  |  156: Species C              9.329202         3.433938         3.280412
  |  157: Species C              9.329202         3.433938        23.579589
  |  158: Species C              5.103797         3.759062         3.280412
  |  159: Species C              2.112703         0.162562         3.280412
  |  160: Species C             12.320297         7.030438        23.579589
  |  161: Species C             12.320297         3.433938        16.710412
  |  162: Species C              2.112703         3.759062        10.149588
  |  163: Species C              5.103797         0.162562        10.149588
  |  164: Species C              9.329202         7.030438        16.710412
  |  165: Species C              9.329202         7.030438        10.149588
  |  166: Species C              5.103797         0.162562        16.710412
  |  167: Species C              2.112703         3.759062        16.710412
  |  168: Species C             12.320297         3.433938        10.149588
  |  169: Species H             12.500421         4.020887         2.350250
  |  170: Species H              1.932579         3.172113        24.509751
  |  171: Species H              5.283921         6.768613        24.509751
  |  172: Species H              9.149078         0.424387         2.350250
  |  173: Species H              9.149078         0.424387        24.509751
  |  174: Species H              5.283921         6.768613         2.350250
  |  175: Species H              1.932579         3.172113         2.350250
  |  176: Species H             12.500421         4.020887        24.509751
  |  177: Species H             12.500421         0.424387        15.780250
  |  178: Species H              1.932579         6.768613        11.079750
  |  179: Species H              5.283921         3.172113        11.079750
  |  180: Species H              9.149078         4.020887        15.780250
  |  181: Species H              9.149078         4.020887        11.079750
  |  182: Species H              5.283921         3.172113        15.780250
  |  183: Species H              1.932579         6.768613        15.780250
  |  184: Species H             12.500421         0.424387        11.079750
  |  185: Species H             11.474235         2.301760         1.192584
  |  186: Species H              2.958765         4.891240        25.667417
  |  187: Species H              4.257735         1.294740        25.667417
  |  188: Species H             10.175264         5.898260         1.192584
  |  189: Species H             10.175264         5.898260        25.667417
  |  190: Species H              4.257735         1.294740         1.192584
  |  191: Species H              2.958765         4.891240         1.192584
  |  192: Species H             11.474235         2.301760        25.667417
  |  193: Species H             11.474235         5.898260        14.622584
  |  194: Species H              2.958765         1.294740        12.237416
  |  195: Species H              4.257735         4.891240        12.237416
  |  196: Species H             10.175264         2.301760        14.622584
  |  197: Species H             10.175264         2.301760        12.237416
  |  198: Species H              4.257735         4.891240        14.622584
  |  199: Species H              2.958765         1.294740        14.622584
  |  200: Species H             11.474235         5.898260        12.237416
  |  201: Species H              0.307423         4.862468         3.540148
  |  202: Species H             14.125576         2.330532        23.319853
  |  203: Species H              7.523923         5.927032        23.319853
  |  204: Species H              6.909077         1.265968         3.540148
  |  205: Species H              6.909077         1.265968        23.319853
  |  206: Species H              7.523923         5.927032         3.540148
  |  207: Species H             14.125576         2.330532         3.540148
  |  208: Species H              0.307423         4.862468        23.319853
  |  209: Species H              0.307423         1.265968        16.970148
  |  210: Species H             14.125576         5.927032         9.889852
  |  211: Species H              7.523923         2.330532         9.889852
  |  212: Species H              6.909077         4.862468        16.970148
  |  213: Species H              6.909077         4.862468         9.889852
  |  214: Species H              7.523923         2.330532        16.970148
  |  215: Species H             14.125576         5.927032        16.970148
  |  216: Species H              0.307423         1.265968         9.889852
  |  217: Species H             14.020216         4.884047         5.815190
  |  218: Species H              0.412784         2.308953        21.044811
  |  219: Species H              6.803716         5.905453        21.044811
  |  220: Species H              7.629283         1.287547         5.815190
  |  221: Species H              7.629283         1.287547        21.044811
  |  222: Species H              6.803716         5.905453         5.815190
  |  223: Species H              0.412784         2.308953         5.815190
  |  224: Species H             14.020216         4.884047        21.044811
  |  225: Species H             14.020216         1.287547        19.245190
  |  226: Species H              0.412784         5.905453         7.614811
  |  227: Species H              6.803716         2.308953         7.614811
  |  228: Species H              7.629283         4.884047        19.245190
  |  229: Species H              7.629283         4.884047         7.614811
  |  230: Species H              6.803716         2.308953        19.245190
  |  231: Species H              0.412784         5.905453        19.245190
  |  232: Species H             14.020216         1.287547         7.614811
  |  233: Species H             12.262277         6.236331         6.470574
  |  234: Species H              2.170723         0.956669        20.389427
  |  235: Species H              5.045777         4.553169        20.389427
  |  236: Species H              9.387223         2.639831         6.470574
  |  237: Species H              9.387223         2.639831        20.389427
  |  238: Species H              5.045777         4.553169         6.470574
  |  239: Species H              2.170723         0.956669         6.470574
  |  240: Species H             12.262277         6.236331        20.389427
  |  241: Species H             12.262277         2.639831        19.900574
  |  242: Species H              2.170723         4.553169         6.959427
  |  243: Species H              5.045777         0.956669         6.959427
  |  244: Species H              9.387223         6.236331        19.900574
  |  245: Species H              9.387223         6.236331         6.959427
  |  246: Species H              5.045777         0.956669        19.900574
  |  247: Species H              2.170723         4.553169        19.900574
  |  248: Species H             12.262277         2.639831         6.959427
  |  249: Species H             11.161038         0.431580         4.818684
  |  250: Species H              3.271961         6.761420        22.041317
  |  251: Species H              3.944539         3.164920        22.041317
  |  252: Species H             10.488461         4.028080         4.818684
  |  253: Species H             10.488461         4.028080        22.041317
  |  254: Species H              3.944539         3.164920         4.818684
  |  255: Species H              3.271961         6.761420         4.818684
  |  256: Species H             11.161038         0.431580        22.041317
  |  257: Species H             11.161038         4.028080        18.248684
  |  258: Species H              3.271961         3.164920         8.611316
  |  259: Species H              3.944539         6.761420         8.611316
  |  260: Species H             10.488461         0.431580        18.248684
  |  261: Species H             10.488461         0.431580         8.611316
  |  262: Species H              3.944539         6.761420        18.248684
  |  263: Species H              3.271961         3.164920        18.248684
  |  264: Species H             11.161038         4.028080         8.611316
  |  265: Species H             11.888462         0.395615         2.565130
  |  266: Species H              2.544538         6.797385        24.294871
  |  267: Species H              4.671962         3.200885        24.294871
  |  268: Species H              9.761037         3.992115         2.565130
  |  269: Species H              9.761037         3.992115        24.294871
  |  270: Species H              4.671962         3.200885         2.565130
  |  271: Species H              2.544538         6.797385         2.565130
  |  272: Species H             11.888462         0.395615        24.294871
  |  273: Species H             11.888462         3.992115        15.995130
  |  274: Species H              2.544538         3.200885        10.864870
  |  275: Species H              4.671962         6.797385        10.864870
  |  276: Species H              9.761037         0.395615        15.995130
  |  277: Species H              9.761037         0.395615        10.864870
  |  278: Species H              4.671962         6.797385        15.995130
  |  279: Species H              2.544538         3.200885        15.995130
  |  280: Species H             11.888462         3.992115        10.864870
  |

  | The smallest distance between any two atoms is         0.96262756 AA.
  |
  | The first atom of this pair is atom number                     61 .
  | The second atom of this pair is atom number                   189 .
  | Wigner-Seitz cell of the first atom image           0     0     0 .
  | (The Wigner-Seitz cell of the second atom is 0 0 0  by definition.)

  Quantities derived from the lattice vectors:
  | Reciprocal lattice vector 1:  0.435335  0.000000  0.000000
  | Reciprocal lattice vector 2:  0.000000  0.873514  0.000000
  | Reciprocal lattice vector 3:  0.000000  0.000000  0.233923
  | Unit cell volume                               :   0.278851E+04  A^3

  Number of empty states per atom not set in control.in - providing a guess from actual geometry.
  | Total number of empty states used during s.c.f. cycle:      672
  If you use a very high smearing, use empty_states (per atom!) in control.in to increase this value.

  Structure-dependent array size parameters: 
  | Maximum number of distinct radial functions  :        9
  | Maximum number of basis functions            :     2912
  | Number of Kohn-Sham states (occupied + empty):     1232
------------------------------------------------------------

------------------------------------------------------------
          Preparing all fixed parts of the calculation.
------------------------------------------------------------
  Determining machine precision:
    2.225073858507201E-308
  Setting up grids for atomic and cluster calculations.

  Creating wave function, potential, and density for free atoms.

  Species: C

  List of occupied orbitals and eigenvalues:
    n    l              occ      energy [Ha]    energy [eV]
    1    0           2.0000       -10.046810      -273.3876
    2    0           2.0000        -0.503128       -13.6908
    2    1           2.0000        -0.191849        -5.2205


  Species: H

  List of occupied orbitals and eigenvalues:
    n    l              occ      energy [Ha]    energy [eV]
    1    0           1.0000        -0.237593        -6.4652

  Creating fixed part of basis set: Ionic, confined, hydrogenic.
 
  C                    hydrogenic:
 
  List of hydrogenic basis orbitals: 
    n    l      effective z      eigenvalue [eV]  inner max. [A]     outer max. [A]     outer radius [A]   
    2    1         1.700000        -9.7616           1.230570           1.230570           4.607917
    3    2         6.000000       -54.4224           0.792453           0.792453           3.883070
    2    0         4.900000       -81.6679           0.082559           0.562749           3.078220
 
 
  H                    hydrogenic:
 
  List of hydrogenic basis orbitals: 
    n    l      effective z      eigenvalue [eV]  inner max. [A]     outer max. [A]     outer radius [A]   
    2    0         2.100000       -14.9728           0.193243           1.317208           4.583499
    2    1         3.500000       -41.6669           0.602369           0.602369           3.723403
 

  Adding cutoff potential to free-atom effective potential.
  Creating atomic-like basis functions for current effective potential.

  Species C                   :

  List of atomic basis orbitals and eigenvalues:
    n    l      energy [Ha]    energy [eV]    outer radius [A]
    1    0       -10.046810      -273.3876       1.934409
    2    0        -0.503128       -13.6908       4.496620
    2    1        -0.191849        -5.2205       4.551928


  Species H                   :

  List of atomic basis orbitals and eigenvalues:
    n    l      energy [Ha]    energy [eV]    outer radius [A]
    1    0        -0.237593        -6.4652       4.527807

  Assembling full basis from fixed parts.
  | Species C :   atomic orbital   1 s accepted.
  | Species C :    hydro orbital   2 s accepted.
  | Species C :   atomic orbital   2 s accepted.
  | Species C :   atomic orbital   2 p accepted.
  | Species C :    hydro orbital   2 p accepted.
  | Species C :    hydro orbital   3 d accepted.
  | Species H :   atomic orbital   1 s accepted.
  | Species H :    hydro orbital   2 s accepted.
  | Species H :    hydro orbital   2 p accepted.
 
  Basis size parameters after reduction:
  | Total number of radial functions:        9
  | Total number of basis functions :     2912
 
  Testing on-site integration grid accuracy.
  |  Species  Function  <phi|h_atom|phi> (log., in eV)  <phi|h_atom|phi> (rad., in eV)
           1        1               -273.3876219248               -273.3875919908
           1        2                -10.7204647119                -10.7200987605
           1        3                 17.5782951162                 17.5752355731
           1        4                 -5.2222267983                 -5.2237454471
           1        5                  8.6866956284                  8.6634852736
           1        6                 27.4984676161                 27.4985577266
           2        7                 -6.4664147733                 -6.4652229287
           2        8                 13.7099062243                 13.7158503352
           2        9                 25.2661739479                 25.2663166526

  Preparing densities etc. for the partition functions (integrals / Hartree potential).

  Preparations completed.
  max(cpu_time)          :      0.121 s.
  Wall clock time (cpu1) :      0.146 s.
------------------------------------------------------------

------------------------------------------------------------
          Begin self-consistency loop: Initialization.

          Date     :  20190118, Time     :  165048.206
------------------------------------------------------------

  Initializing index lists of integration centers etc. from given atomic structure:
  Mapping all atomic coordinates to central unit cell.

  Initializing the k-points
          Using symmetry for reducing the k-points
  | k-points reduced from:        6 to        4
  | Number of k-points                             :         4
  The eigenvectors in the calculations are COMPLEX.
  | Number of basis functions in the Hamiltonian integrals :     12540
  | Number of basis functions in a single unit cell        :      2912
  | Number of centers in hartree potential         :      4550
  | Number of centers in hartree multipole         :      3492
  | Number of centers in electron density summation:      2818
  | Number of centers in basis integrals           :      2946
  | Number of centers in integrals                 :      1430
  | Consuming          2 KiB for k_phase.
  | Number of super-cells :                  42
  | Size of matrix packed + index :     3967201
  Using modified Scalapack Eigenvalue solver (ELPA)
  Using simple linear distribution as default method for k-point parallelism.
  * Using 32 tasks for Scalapack Eigenvalue solver.
  Detailed listing of tasks and assigned k-points:
   Task     0 k-point     1 on dra0095
   Task     1 k-point     1 on dra0095
   Task     2 k-point     1 on dra0095
   Task     3 k-point     1 on dra0095
   Task     4 k-point     1 on dra0095
   Task     5 k-point     1 on dra0095
   Task     6 k-point     1 on dra0095
   Task     7 k-point     1 on dra0095
   Task     8 k-point     2 on dra0095
   Task     9 k-point     2 on dra0095
   Task    10 k-point     2 on dra0095
   Task    11 k-point     2 on dra0095
   Task    12 k-point     2 on dra0095
   Task    13 k-point     2 on dra0095
   Task    14 k-point     2 on dra0095
   Task    15 k-point     2 on dra0095
   Task    16 k-point     3 on dra0095
   Task    17 k-point     3 on dra0095
   Task    18 k-point     3 on dra0095
   Task    19 k-point     3 on dra0095
   Task    20 k-point     3 on dra0095
   Task    21 k-point     3 on dra0095
   Task    22 k-point     3 on dra0095
   Task    23 k-point     3 on dra0095
   Task    24 k-point     4 on dra0095
   Task    25 k-point     4 on dra0095
   Task    26 k-point     4 on dra0095
   Task    27 k-point     4 on dra0095
   Task    28 k-point     4 on dra0095
   Task    29 k-point     4 on dra0095
   Task    30 k-point     4 on dra0095
   Task    31 k-point     4 on dra0095
  K-point:     1 Tasks:     8 split into      4 X      2 BLACS grid
  Calculating blocksize based on n_basis =         2912  max_nprow =            4  max_npcol =            2
  Scalapack blocksize set to:           16
  Required Scalapack workspace - INTEGER:            1  REAL:             1  COMPLEX:            1
  Perform CPU consistency test for lattice for partition grid
  Perform CPU consistency test for map_to_center_cell_matrix for partition grid
  Partitioning the integration grid into batches with parallel hashing+maxmin method.
  | Number of batches:    16732
  | Maximal batch size:     151
  | Minimal batch size:      52
  | Average batch size:      89.522
  | Standard deviation of batch sizes:      19.545

  Integration load balanced across    32 MPI tasks.
  Work distribution over tasks is as follows:
  Task     0 has      46799 integration points.
  Task     1 has      46799 integration points.
  Task     2 has      46803 integration points.
  Task     3 has      46848 integration points.
  Task     4 has      46802 integration points.
  Task     5 has      46809 integration points.
  Task     6 has      46774 integration points.
  Task     7 has      46772 integration points.
  Task     8 has      46765 integration points.
  Task     9 has      46839 integration points.
  Task    10 has      46775 integration points.
  Task    11 has      46792 integration points.
  Task    12 has      46796 integration points.
  Task    13 has      46856 integration points.
  Task    14 has      46788 integration points.
  Task    15 has      46867 integration points.
  Task    16 has      46873 integration points.
  Task    17 has      46866 integration points.
  Task    18 has      46831 integration points.
  Task    19 has      46782 integration points.
  Task    20 has      46840 integration points.
  Task    21 has      46792 integration points.
  Task    22 has      46805 integration points.
  Task    23 has      46798 integration points.
  Task    24 has      46785 integration points.
  Task    25 has      46777 integration points.
  Task    26 has      46804 integration points.
  Task    27 has      46830 integration points.
  Task    28 has      46821 integration points.
  Task    29 has      46803 integration points.
  Task    30 has      46782 integration points.
  Task    31 has      46815 integration points.
  Initializing partition tables, free-atom densities, potentials, etc. across the integration grid (initialize_grid_storage).
  | initialize_grid_storage: Actual outermost partition radius vs. multipole_radius_free
  | (-- VB: in principle, multipole_radius_free should be larger, hence this output)
  | Species        1: outer_partition_radius =              4.999999999999999 AA, multipole_radius_free =              5.019602836301480 AA.
  | Species        2: outer_partition_radius =              4.999999999999999 AA, multipole_radius_free =              5.054417573612229 AA.
  | Original list of interatomic distances with        2946 x       2946 entries is created.
  | Net number of integration points:  1497888
  | of which are non-zero points    :  1191371
  | Numerical average free-atom electrostatic potential    :     -8.56872954 eV
  Obtaining max. number of non-zero basis functions in each batch (get_n_compute_maxes).
  | Maximal number of non-zero basis functions:      543 in task     0
[...]
  Factoring overlap matrix with Cholesky decomposition
  Using Cholesky factor for transformation
  Using 2-stage complex ELPA solver
  Solving hermitian generalised eigenvalue problem by standard ScaLAPACK.
  Transforming overlap matrix with ScaLAPACK and checking for singularities.
  k-point 1: Overlap matrix is nonsingular, using Cholesky decomposition
  | Lowest eigenvalue:  0.604241E-03
  Factoring overlap matrix with Cholesky decomposition
  Using Cholesky factor for transformation
  Using 2-stage complex ELPA solver
  Solving hermitian generalised eigenvalue problem by standard ScaLAPACK.
  Transforming overlap matrix with ScaLAPACK and checking for singularities.
  k-point 1: Overlap matrix is nonsingular, using Cholesky decomposition
  | Lowest eigenvalue:  0.618598E-03
  Factoring overlap matrix with Cholesky decomposition
  Using Cholesky factor for transformation
  Using 2-stage complex ELPA solver
"Band gap" along reciprocal space direction number:   39
  |Lowest unoccupied state: -.5163E+01eV
  |Highest occupied state:   -.6796E+01eV

  Solving hermitian generalised eigenvalue problem by standard ScaLAPACK.
  Transforming overlap matrix with ScaLAPACK and checking for singularities.
  k-point 1: Overlap matrix is nonsingular, using Cholesky decomposition
  | Lowest eigenvalue:  0.599957E-03
  Factoring overlap matrix with Cholesky decomposition
  Using Cholesky factor for transformation
  Using 2-stage complex ELPA solver
  Solving hermitian generalised eigenvalue problem by standard ScaLAPACK.
  Transforming overlap matrix with ScaLAPACK and checking for singularities.
  k-point 1: Overlap matrix is nonsingular, using Cholesky decomposition
  | Lowest eigenvalue:  0.605631E-03
  Factoring overlap matrix with Cholesky decomposition
  Using Cholesky factor for transformation
  Using 2-stage complex ELPA solver
  Solving hermitian generalised eigenvalue problem by standard ScaLAPACK.
  Transforming overlap matrix with ScaLAPACK and checking for singularities.
  k-point 1: Overlap matrix is nonsingular, using Cholesky decomposition
  | Lowest eigenvalue:  0.619965E-03
  Factoring overlap matrix with Cholesky decomposition
  Using Cholesky factor for transformation
  Using 2-stage complex ELPA solver
"Band gap" along reciprocal space direction number:   40
  |Lowest unoccupied state: -.5160E+01eV
  |Highest occupied state:   -.6806E+01eV

  Solving hermitian generalised eigenvalue problem by standard ScaLAPACK.
  Transforming overlap matrix with ScaLAPACK and checking for singularities.
  k-point 1: Overlap matrix is nonsingular, using Cholesky decomposition
  | Lowest eigenvalue:  0.601303E-03
  Factoring overlap matrix with Cholesky decomposition
  Using Cholesky factor for transformation
  Using 2-stage complex ELPA solver
  Solving hermitian generalised eigenvalue problem by standard ScaLAPACK.
  Transforming overlap matrix with ScaLAPACK and checking for singularities.
  k-point 1: Overlap matrix is nonsingular, using Cholesky decomposition
  | Lowest eigenvalue:  0.606991E-03
  Factoring overlap matrix with Cholesky decomposition
  Using Cholesky factor for transformation
  Using 2-stage complex ELPA solver
  Solving hermitian generalised eigenvalue problem by standard ScaLAPACK.
  Transforming overlap matrix with ScaLAPACK and checking for singularities.
  k-point 1: Overlap matrix is nonsingular, using Cholesky decomposition
  | Lowest eigenvalue:  0.621268E-03
  Factoring overlap matrix with Cholesky decomposition
  Using Cholesky factor for transformation
  Using 2-stage complex ELPA solver
"Band gap" along reciprocal space direction number:   41
  |Lowest unoccupied state: -.5156E+01eV
  |Highest occupied state:   -.6816E+01eV

  Solving hermitian generalised eigenvalue problem by standard ScaLAPACK.
  Transforming overlap matrix with ScaLAPACK and checking for singularities.
  k-point 1: Overlap matrix is nonsingular, using Cholesky decomposition
  | Lowest eigenvalue:  0.602628E-03
  Factoring overlap matrix with Cholesky decomposition
  Using Cholesky factor for transformation
  Using 2-stage complex ELPA solver
  Solving hermitian generalised eigenvalue problem by standard ScaLAPACK.
  Transforming overlap matrix with ScaLAPACK and checking for singularities.
  k-point 1: Overlap matrix is nonsingular, using Cholesky decomposition
  | Lowest eigenvalue:  0.608321E-03
  Factoring overlap matrix with Cholesky decomposition
  Using Cholesky factor for transformation
  Using 2-stage complex ELPA solver
  Solving hermitian generalised eigenvalue problem by standard ScaLAPACK.
  Transforming overlap matrix with ScaLAPACK and checking for singularities.
  k-point 1: Overlap matrix is nonsingular, using Cholesky decomposition
  | Lowest eigenvalue:  0.622507E-03
  Factoring overlap matrix with Cholesky decomposition
  Using Cholesky factor for transformation
  Using 2-stage complex ELPA solver
"Band gap" along reciprocal space direction number:   42
  |Lowest unoccupied state: -.5153E+01eV
  |Highest occupied state:   -.6825E+01eV

  Solving hermitian generalised eigenvalue problem by standard ScaLAPACK.
  Transforming overlap matrix with ScaLAPACK and checking for singularities.
  k-point 1: Overlap matrix is nonsingular, using Cholesky decomposition
  | Lowest eigenvalue:  0.603930E-03
  Factoring overlap matrix with Cholesky decomposition
  Using Cholesky factor for transformation
  Using 2-stage complex ELPA solver
  Solving hermitian generalised eigenvalue problem by standard ScaLAPACK.
  Transforming overlap matrix with ScaLAPACK and checking for singularities.
  k-point 1: Overlap matrix is nonsingular, using Cholesky decomposition
  | Lowest eigenvalue:  0.609618E-03
  Factoring overlap matrix with Cholesky decomposition
  Using Cholesky factor for transformation
  Using 2-stage complex ELPA solver
  Solving hermitian generalised eigenvalue problem by standard ScaLAPACK.
  Transforming overlap matrix with ScaLAPACK and checking for singularities.
  k-point 1: Overlap matrix is nonsingular, using Cholesky decomposition
  | Lowest eigenvalue:  0.623680E-03
  Factoring overlap matrix with Cholesky decomposition
  Using Cholesky factor for transformation
  Using 2-stage complex ELPA solver
"Band gap" along reciprocal space direction number:   43
  |Lowest unoccupied state: -.5150E+01eV
  |Highest occupied state:   -.6833E+01eV

  Solving hermitian generalised eigenvalue problem by standard ScaLAPACK.
  Transforming overlap matrix with ScaLAPACK and checking for singularities.
  k-point 1: Overlap matrix is nonsingular, using Cholesky decomposition
  | Lowest eigenvalue:  0.605210E-03
  Factoring overlap matrix with Cholesky decomposition
  Using Cholesky factor for transformation
  Using 2-stage complex ELPA solver
  Solving hermitian generalised eigenvalue problem by standard ScaLAPACK.
  Transforming overlap matrix with ScaLAPACK and checking for singularities.
  k-point 1: Overlap matrix is nonsingular, using Cholesky decomposition
  | Lowest eigenvalue:  0.610882E-03
  Factoring overlap matrix with Cholesky decomposition
  Using Cholesky factor for transformation
  Using 2-stage complex ELPA solver
  Solving hermitian generalised eigenvalue problem by standard ScaLAPACK.
  Transforming overlap matrix with ScaLAPACK and checking for singularities.
  k-point 1: Overlap matrix is nonsingular, using Cholesky decomposition
  | Lowest eigenvalue:  0.624788E-03
  Factoring overlap matrix with Cholesky decomposition
  Using Cholesky factor for transformation
  Using 2-stage complex ELPA solver
"Band gap" along reciprocal space direction number:   44
  |Lowest unoccupied state: -.5147E+01eV
  |Highest occupied state:   -.6841E+01eV

  Solving hermitian generalised eigenvalue problem by standard ScaLAPACK.
  Transforming overlap matrix with ScaLAPACK and checking for singularities.
  k-point 1: Overlap matrix is nonsingular, using Cholesky decomposition
  | Lowest eigenvalue:  0.606465E-03
  Factoring overlap matrix with Cholesky decomposition
  Using Cholesky factor for transformation
  Using 2-stage complex ELPA solver
  Solving hermitian generalised eigenvalue problem by standard ScaLAPACK.
  Transforming overlap matrix with ScaLAPACK and checking for singularities.
  k-point 1: Overlap matrix is nonsingular, using Cholesky decomposition
  | Lowest eigenvalue:  0.612113E-03
  Factoring overlap matrix with Cholesky decomposition
  Using Cholesky factor for transformation
  Using 2-stage complex ELPA solver
  Solving hermitian generalised eigenvalue problem by standard ScaLAPACK.
  Transforming overlap matrix with ScaLAPACK and checking for singularities.
  k-point 1: Overlap matrix is nonsingular, using Cholesky decomposition
  | Lowest eigenvalue:  0.625829E-03
  Factoring overlap matrix with Cholesky decomposition
  Using Cholesky factor for transformation
  Using 2-stage complex ELPA solver
"Band gap" along reciprocal space direction number:   45
  |Lowest unoccupied state: -.5144E+01eV
  |Highest occupied state:   -.6848E+01eV

  Solving hermitian generalised eigenvalue problem by standard ScaLAPACK.
  Transforming overlap matrix with ScaLAPACK and checking for singularities.
  k-point 1: Overlap matrix is nonsingular, using Cholesky decomposition
  | Lowest eigenvalue:  0.607694E-03
  Factoring overlap matrix with Cholesky decomposition
  Using Cholesky factor for transformation
  Using 2-stage complex ELPA solver
  Solving hermitian generalised eigenvalue problem by standard ScaLAPACK.
  Transforming overlap matrix with ScaLAPACK and checking for singularities.
  k-point 1: Overlap matrix is nonsingular, using Cholesky decomposition
  | Lowest eigenvalue:  0.613308E-03
  Factoring overlap matrix with Cholesky decomposition
  Using Cholesky factor for transformation
  Using 2-stage complex ELPA solver
  Solving hermitian generalised eigenvalue problem by standard ScaLAPACK.
  Transforming overlap matrix with ScaLAPACK and checking for singularities.
  k-point 1: Overlap matrix is nonsingular, using Cholesky decomposition
  | Lowest eigenvalue:  0.626803E-03
  Factoring overlap matrix with Cholesky decomposition
  Using Cholesky factor for transformation
  Using 2-stage complex ELPA solver
"Band gap" along reciprocal space direction number:   46
  |Lowest unoccupied state: -.5142E+01eV
  |Highest occupied state:   -.6854E+01eV

  Solving hermitian generalised eigenvalue problem by standard ScaLAPACK.
  Transforming overlap matrix with ScaLAPACK and checking for singularities.
  k-point 1: Overlap matrix is nonsingular, using Cholesky decomposition
  | Lowest eigenvalue:  0.608898E-03
  Factoring overlap matrix with Cholesky decomposition
  Using Cholesky factor for transformation
  Using 2-stage complex ELPA solver
  Solving hermitian generalised eigenvalue problem by standard ScaLAPACK.
  Transforming overlap matrix with ScaLAPACK and checking for singularities.
  k-point 1: Overlap matrix is nonsingular, using Cholesky decomposition
  | Lowest eigenvalue:  0.614467E-03
  Factoring overlap matrix with Cholesky decomposition
  Using Cholesky factor for transformation
  Using 2-stage complex ELPA solver
  Solving hermitian generalised eigenvalue problem by standard ScaLAPACK.
  Transforming overlap matrix with ScaLAPACK and checking for singularities.
  k-point 1: Overlap matrix is nonsingular, using Cholesky decomposition
  | Lowest eigenvalue:  0.627711E-03
  Factoring overlap matrix with Cholesky decomposition
  Using Cholesky factor for transformation
  Using 2-stage complex ELPA solver
"Band gap" along reciprocal space direction number:   47
  |Lowest unoccupied state: -.5139E+01eV
  |Highest occupied state:   -.6860E+01eV

  Solving hermitian generalised eigenvalue problem by standard ScaLAPACK.
  Transforming overlap matrix with ScaLAPACK and checking for singularities.
  k-point 1: Overlap matrix is nonsingular, using Cholesky decomposition
  | Lowest eigenvalue:  0.610073E-03
  Factoring overlap matrix with Cholesky decomposition
  Using Cholesky factor for transformation
  Using 2-stage complex ELPA solver
  Solving hermitian generalised eigenvalue problem by standard ScaLAPACK.
  Transforming overlap matrix with ScaLAPACK and checking for singularities.
  k-point 1: Overlap matrix is nonsingular, using Cholesky decomposition
  | Lowest eigenvalue:  0.615589E-03
  Factoring overlap matrix with Cholesky decomposition
  Using Cholesky factor for transformation
  Using 2-stage complex ELPA solver
  Solving hermitian generalised eigenvalue problem by standard ScaLAPACK.
  Transforming overlap matrix with ScaLAPACK and checking for singularities.
  k-point 1: Overlap matrix is nonsingular, using Cholesky decomposition
  | Lowest eigenvalue:  0.628552E-03
  Factoring overlap matrix with Cholesky decomposition
  Using Cholesky factor for transformation
  Using 2-stage complex ELPA solver
"Band gap" along reciprocal space direction number:   48
  |Lowest unoccupied state: -.5137E+01eV
  |Highest occupied state:   -.6865E+01eV

  Solving hermitian generalised eigenvalue problem by standard ScaLAPACK.
  Transforming overlap matrix with ScaLAPACK and checking for singularities.
  k-point 1: Overlap matrix is nonsingular, using Cholesky decomposition
  | Lowest eigenvalue:  0.611220E-03
  Factoring overlap matrix with Cholesky decomposition
  Using Cholesky factor for transformation
  Using 2-stage complex ELPA solver
  Solving hermitian generalised eigenvalue problem by standard ScaLAPACK.
  Transforming overlap matrix with ScaLAPACK and checking for singularities.
  k-point 1: Overlap matrix is nonsingular, using Cholesky decomposition
  | Lowest eigenvalue:  0.616673E-03
  Factoring overlap matrix with Cholesky decomposition
  Using Cholesky factor for transformation
  Using 2-stage complex ELPA solver
  Solving hermitian generalised eigenvalue problem by standard ScaLAPACK.
  Transforming overlap matrix with ScaLAPACK and checking for singularities.
  k-point 1: Overlap matrix is nonsingular, using Cholesky decomposition
  | Lowest eigenvalue:  0.629326E-03
  Factoring overlap matrix with Cholesky decomposition
  Using Cholesky factor for transformation
  Using 2-stage complex ELPA solver
"Band gap" along reciprocal space direction number:   49
  |Lowest unoccupied state: -.5135E+01eV
  |Highest occupied state:   -.6869E+01eV

  Solving hermitian generalised eigenvalue problem by standard ScaLAPACK.
  Transforming overlap matrix with ScaLAPACK and checking for singularities.
  k-point 1: Overlap matrix is nonsingular, using Cholesky decomposition
  | Lowest eigenvalue:  0.612337E-03
  Factoring overlap matrix with Cholesky decomposition
  Using Cholesky factor for transformation
  Using 2-stage complex ELPA solver
  Solving hermitian generalised eigenvalue problem by standard ScaLAPACK.
  Transforming overlap matrix with ScaLAPACK and checking for singularities.
  k-point 1: Overlap matrix is nonsingular, using Cholesky decomposition
  | Lowest eigenvalue:  0.617717E-03
  Factoring overlap matrix with Cholesky decomposition
  Using Cholesky factor for transformation
  Using 2-stage complex ELPA solver
  Solving hermitian generalised eigenvalue problem by standard ScaLAPACK.
  Transforming overlap matrix with ScaLAPACK and checking for singularities.
  k-point 1: Overlap matrix is nonsingular, using Cholesky decomposition
  | Lowest eigenvalue:  0.630033E-03
  Factoring overlap matrix with Cholesky decomposition
  Using Cholesky factor for transformation
  Using 2-stage complex ELPA solver
"Band gap" along reciprocal space direction number:   50
  |Lowest unoccupied state: -.5134E+01eV
  |Highest occupied state:   -.6872E+01eV

  Solving hermitian generalised eigenvalue problem by standard ScaLAPACK.
  Transforming overlap matrix with ScaLAPACK and checking for singularities.
  k-point 1: Overlap matrix is nonsingular, using Cholesky decomposition
  | Lowest eigenvalue:  0.613423E-03
  Factoring overlap matrix with Cholesky decomposition
  Using Cholesky factor for transformation
  Using 2-stage complex ELPA solver
  Solving hermitian generalised eigenvalue problem by standard ScaLAPACK.
  Transforming overlap matrix with ScaLAPACK and checking for singularities.
  k-point 1: Overlap matrix is nonsingular, using Cholesky decomposition
  | Lowest eigenvalue:  0.618720E-03
  Factoring overlap matrix with Cholesky decomposition
  Using Cholesky factor for transformation
  Using 2-stage complex ELPA solver
  Solving hermitian generalised eigenvalue problem by standard ScaLAPACK.
  Transforming overlap matrix with ScaLAPACK and checking for singularities.
  k-point 1: Overlap matrix is nonsingular, using Cholesky decomposition
  | Lowest eigenvalue:  0.630672E-03
  Factoring overlap matrix with Cholesky decomposition
  Using Cholesky factor for transformation
  Using 2-stage complex ELPA solver
"Band gap" along reciprocal space direction number:   51
  |Lowest unoccupied state: -.5132E+01eV
  |Highest occupied state:   -.6875E+01eV


------------------------------------------------------------------------------
  Final output of selected total energy values:

  The following output summarizes some interesting total energy values
  at the end of a run (AFTER all relaxation, molecular dynamics, etc.).

  | Total energy of the DFT / Hartree-Fock s.c.f. calculation      :        -175961.173226345 eV
  | Final zero-broadening corrected energy (caution - metals only) :        -175961.173226345 eV
  | For reference only, the value of 1 Hartree used in FHI-aims is :             27.211384500 eV

  Before relying on these values, please be sure to understand exactly which
  total energy value is referred to by a given number. Different objects may
  all carry the same name 'total energy'. Definitions:

  Total energy of the DFT / Hartree-Fock s.c.f. calculation:
  | Note that this energy does not include ANY quantities calculated after the
  | s.c.f. cycle, in particular not ANY RPA, MP2, etc. many-body perturbation terms.

  Final zero-broadening corrected energy:
  | For metallic systems only, a broadening of the occupation numbers at the Fermi
  | level can be extrapolated back to zero broadening by an electron-gas inspired
  | formula. For all systems that are not real metals, this value can be
  | meaningless and should be avoided.

------------------------------------------------------------------------------

------------------------------------------------------------
          Leaving FHI-aims.
          Date     :  20190118, Time     :  173219.876

          Computational steps:
          | Number of self-consistency cycles          :           20

          Detailed time accounting                     :  max(cpu_time)    wall_clock(cpu1)
          | Total time                                 :     2491.891 s        2492.644 s
          | Preparation time                           :        0.121 s           0.146 s
          | Grid partitioning                          :        1.850 s           1.854 s
          | Preloading free-atom quantities on grid    :        0.005 s           0.004 s
          | Free-atom superposition energy             :        1.419 s           1.422 s
          | Total time for integrations                :       84.140 s          84.145 s
          | Total time for solution of K.-S. equations :      117.922 s         117.916 s
          | Total time for density update              :      113.854 s         113.849 s
          | Total time for mixing & preconditioning    :      180.715 s         180.722 s
          | Total time for Hartree multipole update    :        0.308 s           0.311 s
          | Total time for Hartree multipole sum       :      176.763 s         176.764 s
          | Total time for total energy evaluation     :        0.007 s           0.015 s
          | Total time for scaled ZORA corrections     :        0.000 s           0.000 s

          Have a nice day.
------------------------------------------------------------
